pynof
Energy PNOF5 CC-PVDZ
Number of atoms                            I                2
Charge                                     I                0
Multiplicity                               I                1
Number of electrons                        I                2
Number of alpha electrons                  I                1
Number of beta electrons                   I                1
Number of basis functions                  I               10
Number of independant functions            I                3
Number of contracted shells                I                6
Highest angular momentum                   I                1
Largest degree of contraction              I                3
Number of primitive shells                 I               10
Atomic numbers                             I   N=           2
           1           1
Nuclear Charges                            R   N=           2
  1.00000000e+00  1.00000000e+00
Current cartesian coordinates              R   N=           6
  0.00000000e+00  0.00000000e+00 -6.61404144e-01  0.00000000e+00  0.00000000e+00
  6.61404144e-01
Shell types                                I   N=           6
           0           0           1           0           0           1
Number of primitives per shell             I   N=           6
           3           1           1           3           1           1
Shell to atom map                          I   N=           6
           1           1           1           2           2           2
Coordinates of each shell                  R   N=          18
  0.00000000e+00  0.00000000e+00 -6.61404144e-01  0.00000000e+00  0.00000000e+00
 -6.61404144e-01  0.00000000e+00  0.00000000e+00 -6.61404144e-01  0.00000000e+00
  0.00000000e+00  6.61404144e-01  0.00000000e+00  0.00000000e+00  6.61404144e-01
  0.00000000e+00  0.00000000e+00  6.61404144e-01
Total Energy                               R     -1.149736620073743e+00
Primitive exponents                        R   N=          10
  1.30100000e+01  1.96200000e+00  4.44600000e-01  1.22000000e-01  7.27000000e-01
  1.30100000e+01  1.96200000e+00  4.44600000e-01  1.22000000e-01  7.27000000e-01
Contraction coefficients                   R   N=          10
  1.96850000e-02  1.37977000e-01  4.78148000e-01  1.00000000e+00  1.00000000e+00
  1.96850000e-02  1.37977000e-01  4.78148000e-01  1.00000000e+00  1.00000000e+00
Alpha Orbital Energies                     R   N=          10
 -6.19210051e-01 -1.42003698e-02 -5.23573649e-03  0.00000000e+00  0.00000000e+00
  0.00000000e+00  0.00000000e+00  0.00000000e+00  0.00000000e+00  0.00000000e+00
Alpha MO coefficients                      R   N=         100
  4.12171530e-01  1.61572657e-01  2.78666808e-05  1.96649266e-05  1.96870809e-02
  4.12007290e-01  1.61443143e-01  2.64270986e-05 -6.87090402e-05 -1.95399256e-02
  1.00833215e+00  1.88158903e-01 -7.17413186e-04  6.66707267e-04 -4.31981276e-02
 -1.00829102e+00 -1.88362613e-01  4.61752405e-04 -5.59162340e-04 -4.36872535e-02
  4.75925888e-01 -5.93584951e-01  4.69118318e-04  6.74131209e-04  2.80089092e-01
  4.74391047e-01 -5.92346271e-01 -3.76747844e-04 -7.97097029e-04 -2.78699617e-01
 -1.20926529e-01 -2.59883910e+00 -1.75521766e-02  4.87314139e-03 -6.43227394e-01
  1.06832060e-01  2.60894810e+00 -1.70485686e-02  2.64229402e-03 -6.57809918e-01
  1.09831450e-02 -2.47326775e-02  3.94708101e-02 -5.71669917e-01  8.45401288e-04
 -9.17161221e-03  2.34635859e-02  3.67631019e-02 -5.69291323e-01  2.96447828e-03
  2.52427438e-02 -8.28717154e-02  5.70406585e-01  3.78133461e-02 -2.68620514e-03
 -2.21325975e-02  8.06647688e-02  5.70030710e-01  3.87204837e-02  7.39146694e-04
  6.81345458e-01 -5.03830534e-01 -1.91326374e-03 -1.14857345e-03 -6.98088344e-01
  6.55664111e-01 -4.45522490e-01 -1.35797026e-03  2.73177543e-03  7.03504033e-01
  7.39209904e-03  1.01413232e-03  2.21675647e-02  1.02987246e+00  3.94079334e-03
 -5.58626881e-03 -1.96575564e-03 -2.15768677e-02 -1.03112072e+00  6.99743423e-03
 -5.88894700e-03  5.85510400e-04  1.03034506e+00 -2.11123767e-02 -4.86462022e-03
  5.82728608e-03 -3.40035288e-04 -1.03065389e+00  2.26191736e-02 -4.31693679e-03
  3.02970165e+00 -4.74723260e-01 -3.05596069e-03 -6.74114120e-04  2.08276970e+00
 -3.03620213e+00  4.79505137e-01 -7.30647752e-03  4.11271142e-03  2.07655400e+00
Total SCF Density                          R   N=           55
  3.56996218e-01  1.33416414e-01  5.44777162e-02  9.68820660e-06  4.42209393e-06
  1.31860146e-08  3.14317379e-05  6.21662903e-06 -6.42608139e-09  1.25140839e-08
  1.59984765e-02  5.05571628e-03  2.53814445e-06  1.39505669e-06  1.30257404e-03
  3.16363935e-01  1.25813502e-01  3.84854616e-05  4.64420059e-06  1.77241632e-02
  3.56718094e-01  1.25754222e-01  5.30208868e-02  9.79792571e-06  1.21787965e-06
  5.37680163e-03  1.33272217e-01  5.43873028e-02  2.96268324e-05  1.15842974e-05
 -6.27084914e-09  5.53621133e-09 -4.35031120e-08  1.10782559e-05  8.11229139e-06
  6.52987280e-09 -6.95432133e-05 -2.09880614e-05  1.82417872e-09 -1.35185544e-08
 -3.61296217e-06 -4.70575132e-05 -1.67841314e-05 -6.80987312e-09  1.95972127e-08
 -1.76192143e-02 -5.33961235e-03 -1.28458773e-06 -2.53694096e-06 -1.21962988e-03
 -1.58556976e-02 -5.00924755e-03 -7.51108345e-07  4.55343233e-06  1.28707431e-03
Natural orbital occupancies                R   N=            3
  9.86853351e-01  9.95709022e-03  3.18955857e-03